TITLE = "diode2d"
VARIABLES = "x", "y", "Acceptors", "AtContactNode", "ContactSurfaceArea", "Donors", "ElectronGeneration", "ElectronGeneration:Electrons", "ElectronGeneration:Holes", "Electrons", "Electrons_prev", "HoleGeneration", "HoleGeneration:Electrons", "HoleGeneration:Holes", "Holes", "Holes_prev", "IntrinsicCharge", "IntrinsicCharge:Potential", "IntrinsicElectrons", "IntrinsicElectrons:Potential", "IntrinsicHoles", "IntrinsicHoles:Potential", "NCharge", "NCharge:Electrons", "NSurfaceNormal_x", "NSurfaceNormal_y", "NetDoping", "NodeVolume", "PCharge", "PCharge:Holes", "Potential", "PotentialIntrinsicCharge", "PotentialIntrinsicCharge:Potential", "PotentialNodeCharge", "PotentialNodeCharge:Electrons", "PotentialNodeCharge:Holes", "Potential_prev", "SurfaceArea", "USRH", "USRH:Electrons", "USRH:Holes", "botnodeelectrons", "botnodeelectrons:Electrons", "botnodeholes", "botnodeholes:Holes", "botnodemodel", "botnodemodel:Potential", "coordinate_index", "node_index", "topnodeelectrons", "topnodeelectrons:Electrons", "topnodeholes", "topnodeholes:Holes", "topnodemodel", "topnodemodel:Potential", "Bern01", "Bern01:Potential@n0", "Bern01:Potential@n1", "EdgeCouple", "EdgeInverseLength", "EdgeLength", "EdgeNodeVolume", "ElectricField", "ElectricField:Potential@n0", "ElectricField:Potential@n1", "ElectronCurrent", "ElectronCurrent:Electrons@n0", "ElectronCurrent:Electrons@n1", "ElectronCurrent:Holes@n0", "ElectronCurrent:Holes@n1", "ElectronCurrent:Potential@n0", "ElectronCurrent:Potential@n1", "Electrons@n0", "Electrons@n1", "HoleCurrent", "HoleCurrent:Electrons@n0", "HoleCurrent:Electrons@n1", "HoleCurrent:Holes@n0", "HoleCurrent:Holes@n1", "HoleCurrent:Potential@n0", "HoleCurrent:Potential@n1", "Holes@n0", "Holes@n1", "Potential@n0", "Potential@n1", "PotentialEdgeFlux", "PotentialEdgeFlux:Potential@n0", "PotentialEdgeFlux:Potential@n1", "contactcharge_edge", "contactcharge_edge:Potential@n0", "contactcharge_edge:Potential@n1", "edge_index", "unitx", "unity", "vdiff", "vdiff:Potential@n0", "vdiff:Potential@n1", "ElementEdgeCouple", "ElementNodeVolume"
ZONE T="Bulk" NODES=501, ELEMENTS=922, DATAPACKING=BLOCK, ZONETYPE=FETRIANGLE, VARLOCATION=([98,99]=CELLCENTERED)
0 1e-05 1e-05 0 5.26316e-07 1.05263e-06 1.57895e-06 2.10526e-06 2.63158e-06 3.15789e-06 3.68421e-06 4.21053e-06 4.73684e-06 5.26316e-06 5.78947e-06 6.31579e-06 6.84211e-06 7.36842e-06 7.89474e-06 8.42105e-06 8.94737e-06 9.47368e-06 1e-05 1e-05 1e-05 1e-05 1e-05 1e-05 1e-05 1e-05 1e-05 1e-05 1e-05 1e-05 1e-05 1e-05 1e-05 1e-05 1e-05 1e-05 9.5e-06 9e-06 8.5e-06 8e-06 7.5e-06 7e-06 6.5e-06 6e-06 5.5e-06 5e-06 4.5e-06 4e-06 3.5e-06 3e-06 2.5e-06 2e-06 1.5e-06 1e-06 5e-07 0 0 0 0 0 0 0 0 0 0 0 0 0 0 0 0 0 0 0 5.80552e-06 8.37104e-06 3.86318e-06 3.81919e-06 7.27477e-06 2.1472e-06 2.00416e-06 6.72561e-06 1.99037e-06 8.23991e-06 7.82623e-06 1.90332e-06 8.54829e-06 8.37915e-06 8.74007e-06 1.31183e-06 1.06997e-06 8.79283e-06 5.12991e-07 9.20879e-06 8.95207e-07 9.01378e-06 5.54945e-06 3.85704e-06 6.83049e-06 5.57915e-06 1.89813e-06 2.17771e-06 7.94358e-06 7.70056e-06 5.17657e-06 6.61308e-06 4.9647e-06 6.27109e-06 7.61601e-07 4.80773e-06 6.76951e-06 4.60082e-07 4.84824e-06 3.03104e-06 7.27255e-06 1.11508e-06 3.16237e-06 8.97065e-06 3.66125e-06 7.22437e-06 2.74567e-06 2.54166e-06 9.02852e-06 8.87606e-06 1.01366e-06 1.95962e-06 9.25631e-06 6.21692e-06 9.52338e-06 8.09578e-06 1.67098e-06 9.53955e-06 8.03481e-06 8.65193e-06 5.15552e-07 1.52414e-06 2.74402e-06 7.49032e-06 8.75331e-06 1.18056e-06 9.24418e-06 7.21955e-07 9.63722e-06 1.83492e-06 8.5851e-07 9.90134e-07 3.72815e-06 2.85452e-06 2.89292e-06 3.7489e-06 7.12073e-06 2.94746e-06 4.90152e-06 6.31072e-06 6.72144e-06 2.84637e-06 6.24352e-06 4.51375e-06 2.54948e-06 4.75564e-06 5.06294e-06 8.66327e-06 4.52413e-06 5.91602e-06 5.9063e-06 4.78453e-06 6.14233e-06 7.08477e-06 3.59853e-06 8.06025e-06 8.64727e-06 5.69871e-06 1.11491e-06 6.43576e-06 3.38729e-06 7.81753e-06 5.29056e-06 4.57082e-06 5.97705e-06 7.70096e-06 7.09175e-06 8.45592e-06 5.17658e-06 1.89386e-06 1.53993e-06 9.09605e-06 1.26908e-06 7.96098e-06 1.17648e-06 6.34721e-06 5.37607e-06 2.09253e-06 5.31706e-06 5.1415e-06 6.72907e-06 7.49701e-06 6.91455e-06 6.41913e-06 6.69613e-06 6.10587e-06 8.95957e-06 7.31339e-06 2.63599e-06 1.47674e-06 7.28672e-06 3.77705e-06 8.5625e-06 2.35096e-06 4.94308e-07 6.50913e-06 9.4561e-06 3.1989e-06 7.33519e-07 2.94778e-06 7.72957e-06 3.97928e-06 8.64714e-06 6.0454e-07 4.08382e-06 6.77599e-06 3.8497e-07 7.79759e-06 1.61681e-06 8.14604e-06 2.00112e-06 7.19357e-06 9.41685e-06 8.98438e-06 8.16901e-06 1.99221e-06 6.9366e-06 3.81372e-07 9.56572e-06 8.52579e-06 2.33312e-06 3.25213e-06 7.86541e-06 8.14865e-06 9.51524e-06 9.52303e-06 9.51342e-06 1.34442e-06 6.59601e-06 8.24316e-06 2.40174e-06 5.83736e-06 7.73523e-06 9.16679e-06 8.41513e-06 4.39662e-07 1.94212e-06 8.16016e-06 8.6099e-06 7.79745e-06 2.46926e-06 7.70193e-06 2.48141e-06 2.91924e-06 8.92074e-06 1.56246e-06 7.94987e-06 8.52085e-06 7.36921e-06 8.15279e-06 8.68886e-06 1.79388e-06 9.73802e-07 5.63847e-06 9.30666e-06 1.09388e-06 1.04725e-06 7.12036e-06 7.60195e-06 1.52863e-06 9.5321e-06 1.53763e-06 8.33227e-06 2.14004e-06 9.1364e-06 9.02539e-06 9.21512e-06 1.00073e-06 9.37592e-06 9.6692e-06 3.28045e-07 9.65672e-06 7.62962e-06 8.33053e-06 1.33876e-06 1.87906e-06 1.34122e-06 2.38448e-06 2.85903e-06 3.75971e-06 2.87086e-06 3.76812e-06 3.33106e-06 2.38685e-06 3.7435e-06 3.33359e-06 3.33824e-06 4.22472e-06 2.42935e-06 4.28289e-06 3.3925e-06 3.95667e-06 2.40341e-06 2.02896e-06 9.09243e-07 2.91936e-06 3.30386e-06 4.43855e-06 3.78021e-06 4.24218e-06 3.31136e-06 4.10434e-06 3.33249e-06 4.24143e-06 2.49612e-06 1.55486e-06 6.36873e-06 6.54121e-06 4.15093e-06 7.38094e-06 7.353e-06 4.16735e-06 4.31963e-06 7.16804e-06 3.39308e-06 3.39349e-06 4.6279e-06 3.35348e-06 6.43122e-06 6.268e-06 4.41004e-06 7.83401e-06 7.26097e-06 2.53733e-06 7.84506e-06 4.36298e-06 2.96218e-06 8.18527e-06 6.03606e-06 6.98159e-06 6.44878e-06 5.36251e-06 6.944e-06 4.2101e-06 5.83312e-06 5.82064e-06 6.91406e-06 6.15828e-06 5.13655e-06 8.23803e-06 4.90121e-06 3.59428e-06 6.54729e-06 5.14199e-06 4.16205e-06 6.50743e-06 9.52789e-06 5.77109e-06 7.58298e-07 6.87398e-06 6.0523e-06 6.13227e-06 7.2685e-06 6.73428e-06 5.00979e-06 1.78979e-06 4.24149e-07 6.84874e-06 6.80366e-06 4.90985e-06 2.04012e-06 6.05621e-06 4.62771e-06 4.66397e-06 4.69447e-06 5.14098e-06 1.63578e-06 4.53933e-06 5.29306e-06 5.71826e-06 2.53832e-06 4.23475e-06 4.8672e-06 5.6952e-06 7.04837e-06 6.47469e-06 9.55195e-06 6.11866e-06 4.54098e-06 4.68129e-06 5.57121e-06 6.66617e-06 7.49479e-06 6.56839e-06 5.43035e-06 4.17514e-07 3.75748e-06 5.04501e-07 4.27919e-07 6.25157e-06 5.59301e-06 5.95138e-06 4.95354e-06 5.15964e-06 7.28911e-06 5.60278e-06 3.74154e-07 6.00263e-06 7.62344e-06 7.52137e-06 5.15472e-06 5.67186e-06 5.2742e-06 6.23162e-06 4.13604e-06 9.67625e-06 4.454e-06 4.5982e-06 5.57237e-06 5.0288e-06 4.48552e-06 8.27905e-06 2.04451e-06 5.67763e-06 2.76914e-06 3.50045e-06 6.09976e-06 6.90966e-06 8.81087e-06 4.74058e-06 3.95889e-06 5.46818e-06 4.65172e-06 5.95492e-06 9.6343e-06 1.40283e-06 5.6689e-06 8.65757e-06 9.07445e-06 6.32403e-06 5.55137e-06 8.94996e-06 3.40109e-06 5.69449e-06 3.52489e-06 7.3161e-06 5.40992e-06 5.40022e-06 3.19728e-06 8.36373e-06 5.94189e-06 3.35039e-07 4.91946e-07 4.97924e-06 6.99612e-06 1.56573e-06 3.09877e-06 1.31621e-06 7.74887e-06 9.64924e-06 5.37409e-07 4.05031e-06 2.59997e-06 4.46605e-06 1.32854e-06 2.35079e-06 9.05626e-06 1.49689e-06 9.62925e-06 9.48564e-06 5.35417e-06 4.66747e-07 4.68277e-06 9.59416e-06 3.34038e-07 4.15335e-06 2.89018e-06 8.57941e-07 2.22117e-06 3.78646e-06 3.05436e-06 4.45116e-06 4.87865e-06 1.10193e-06 4.19259e-07 1.47165e-06 6.89795e-07 5.23375e-06 8.83062e-07 7.66705e-07 9.02346e-07 1.41416e-06 3.4582e-07
0 0 1e-05 1e-05 0 0 0 0 0 0 0 0 0 0 0 0 0 0 0 0 0 0 5.26316e-07 1.05263e-06 1.57895e-06 2.10526e-06 2.63158e-06 3.15789e-06 3.68421e-06 4.21053e-06 4.73684e-06 5.26316e-06 5.78947e-06 6.31579e-06 6.84211e-06 7.36842e-06 7.89474e-06 8.42105e-06 8.94737e-06 9.47368e-06 1e-05 1e-05 1e-05 1e-05 1e-05 1e-05 1e-05 1e-05 1e-05 1e-05 1e-05 1e-05 1e-05 1e-05 1e-05 1e-05 1e-05 1e-05 1e-05 9.5e-06 9e-06 8.5e-06 8e-06 7.5e-06 7e-06 6.5e-06 6e-06 5.5e-06 5e-06 4.5e-06 4e-06 3.5e-06 3e-06 2.5e-06 2e-06 1.5e-06 1e-06 5e-07 4.76624e-06 6.06024e-06 2.72497e-06 7.19515e-06 7.53545e-06 2.52539e-06 7.46706e-06 1.97349e-06 2.00708e-06 8.08799e-06 2.68158e-06 8.06702e-06 8.50534e-06 1.83052e-06 1.35487e-06 8.79892e-06 1.2053e-06 8.96453e-06 7.65441e-07 9.47262e-06 9.09048e-06 8.25249e-07 7.51784e-06 4.90965e-06 7.81602e-06 2.21378e-06 6.02097e-06 3.76924e-06 3.15245e-06 4.60825e-06 6.09982e-06 3.15685e-06 3.62802e-06 9.16452e-06 3.4536e-06 1.30782e-06 6.24874e-06 6.23591e-06 8.64068e-06 9.11031e-06 8.75846e-06 2.7347e-06 1.04943e-06 6.77572e-06 8.54803e-06 1.09139e-06 8.72978e-06 1.10116e-06 7.2013e-06 2.59765e-06 7.74057e-06 8.72038e-07 8.04532e-06 8.76075e-07 1.84309e-06 9.94249e-07 9.04108e-06 6.13426e-06 6.99571e-06 9.49444e-06 1.35438e-06 5.06905e-07 1.96351e-06 1.91185e-06 4.70478e-07 9.54506e-06 3.82828e-07 9.63511e-06 9.198e-06 4.81778e-06 5.33043e-06 4.40388e-06 6.07072e-06 5.48399e-06 4.33231e-06 3.78128e-06 5.44004e-06 3.2973e-06 4.83661e-06 5.46721e-06 4.68153e-06 6.65584e-06 3.98562e-06 4.13732e-06 2.66782e-06 7.38606e-06 8.22275e-06 4.10116e-06 5.5965e-06 8.27215e-06 1.38954e-06 2.56923e-06 6.89332e-06 3.84075e-06 8.02494e-06 5.63051e-06 5.08387e-06 3.17841e-06 6.25121e-06 8.24333e-06 2.00998e-06 6.14801e-06 6.63624e-06 3.29906e-06 2.55006e-06 6.68152e-06 2.26983e-06 3.33565e-06 1.74995e-06 6.9106e-06 3.13222e-06 4.83168e-06 6.84248e-06 3.59346e-06 3.53996e-06 7.68943e-06 5.59969e-06 2.87535e-06 4.03369e-06 2.87737e-06 9.44256e-06 3.0485e-06 7.23075e-06 1.47639e-06 8.84276e-06 1.98704e-06 3.02394e-06 8.14686e-06 9.42045e-06 2.02654e-06 9.38652e-06 9.5116e-06 5.59477e-06 4.7301e-07 7.72709e-06 2.40208e-06 2.72213e-06 8.30846e-06 6.77848e-06 2.25848e-06 8.41947e-06 4.49121e-07 7.58254e-06 2.84176e-06 8.96346e-06 9.73108e-07 7.19247e-06 1.45324e-06 2.51112e-06 8.59649e-06 1.43213e-06 5.67727e-07 6.85536e-06 5.97476e-06 7.45197e-06 9.5297e-06 1.48745e-06 9.30725e-06 6.992e-07 9.54028e-07 8.40528e-06 9.50592e-06 4.77141e-07 6.52535e-06 5.62881e-06 7.26962e-06 3.29868e-06 9.17593e-06 4.70724e-07 1.41204e-06 1.73788e-06 9.56684e-06 7.85013e-06 2.21501e-06 2.76421e-06 1.95573e-06 3.97887e-07 9.48566e-06 2.23571e-06 9.01757e-06 7.82099e-06 7.24087e-06 2.21336e-06 1.66359e-06 1.7413e-06 1.07938e-06 1.8404e-06 6.99976e-06 1.47939e-06 2.25299e-06 6.47717e-06 8.6158e-06 2.2984e-06 4.82336e-07 8.84199e-06 6.5269e-07 3.15084e-06 1.84081e-06 1.02465e-06 1.55465e-06 5.0931e-06 9.45835e-06 5.79179e-07 8.97838e-06 7.64398e-06 8.4768e-06 6.47705e-06 1.7325e-06 1.28784e-06 9.62886e-06 9.69431e-06 3.21669e-07 2.27097e-06 9.00897e-06 5.71891e-06 5.43053e-06 5.14328e-06 5.169e-06 6.06113e-06 5.51807e-06 4.8955e-06 4.30544e-06 5.20413e-06 5.75808e-06 6.60945e-06 6.87128e-06 4.61849e-06 4.43914e-06 4.58286e-06 9.51062e-06 3.03141e-06 7.66805e-06 6.32155e-06 4.24971e-06 4.90326e-06 3.79211e-06 5.7836e-06 4.86003e-06 3.26719e-06 5.32916e-06 6.31922e-06 2.32907e-06 4.06018e-06 6.77846e-06 4.03731e-06 4.36442e-06 6.22345e-06 5.8437e-06 5.80803e-06 5.09525e-06 4.20807e-06 3.49495e-06 7.29015e-06 4.65308e-06 7.31566e-06 2.52441e-06 6.96382e-06 3.53824e-06 3.58084e-06 4.72377e-06 7.74951e-06 5.18391e-06 3.41533e-06 3.56124e-06 4.06974e-06 2.59123e-06 2.81718e-06 4.83138e-06 4.38319e-06 5.82688e-06 6.60106e-06 4.80231e-06 5.06607e-06 6.27228e-06 7.19367e-06 5.53825e-06 4.27137e-06 3.26555e-06 9.07163e-06 4.33887e-06 7.80492e-06 7.6259e-06 7.01465e-06 4.44668e-06 3.9725e-06 5.08549e-06 3.93732e-06 4.00845e-06 5.78552e-06 6.70382e-06 5.11846e-06 3.69902e-07 6.33052e-06 5.4549e-06 6.98118e-06 3.89847e-06 3.75132e-06 3.49159e-06 2.74121e-06 5.63461e-06 6.51893e-06 7.92611e-06 5.95636e-06 2.90814e-06 5.23648e-06 5.20658e-06 6.42923e-06 8.23403e-06 7.85818e-06 6.81327e-06 3.09445e-06 3.04759e-06 4.06417e-06 7.898e-06 3.08711e-06 4.32665e-06 4.50811e-06 5.92854e-06 3.766e-06 4.46399e-06 6.40959e-06 3.91614e-06 5.66502e-06 7.39267e-06 7.11996e-06 8.76703e-06 2.27442e-06 2.39897e-06 5.42272e-06 9.65117e-06 5.17192e-06 7.57826e-06 3.24328e-06 7.45408e-06 6.95382e-06 1.7355e-06 3.32945e-06 6.406e-06 3.39394e-06 3.75355e-06 8.08384e-07 9.03549e-06 8.62259e-06 7.29367e-06 8.50968e-06 8.76523e-06 3.28261e-07 1.80939e-06 4.40676e-06 2.27215e-06 2.21879e-06 5.23658e-06 3.41173e-06 5.99698e-06 8.19158e-06 9.08123e-06 8.69478e-06 8.36149e-06 8.08585e-06 6.52688e-06 1.94558e-06 8.22537e-06 9.1294e-06 3.58712e-06 6.52491e-06 7.35503e-06 8.56804e-06 4.54035e-06 4.26574e-06 2.86404e-06 2.69337e-06 3.67582e-06 5.05648e-07 9.98789e-07 1.50778e-06 2.6832e-06 1.31983e-06 3.50805e-06 8.76675e-06 3.85438e-06 2.91029e-06 5.77949e-06 4.69176e-06 9.45942e-06 9.10757e-06 3.60248e-06 7.6934e-06 4.73213e-06 9.57795e-06 8.09161e-06 5.05994e-06 8.12237e-06 7.22744e-06 8.65482e-06 3.95844e-06 6.78463e-06 5.36783e-06 6.10508e-06 2.30341e-06 8.44033e-06 9.52223e-06 4.21473e-06 9.61989e-06 7.71895e-06 6.71365e-06 1.39519e-06 5.31582e-07 3.88699e-06 7.10565e-06 9.50667e-07 7.15272e-06 8.02191e-07 3.86005e-07 8.06692e-06 8.24169e-06 7.85012e-06 3.33626e-07 4.19182e-07 7.27269e-06 8.04916e-06 8.48833e-06 8.31452e-06 3.19814e-07
1e+18 1e+18 0 0 1e+18 1e+18 1e+18 1e+18 1e+18 1e+18 1e+18 1e+18 1e+18 1e+18 1e+18 1e+18 1e+18 1e+18 1e+18 1e+18 1e+18 1e+18 1e+18 1e+18 1e+18 1e+18 1e+18 1e+18 1e+18 1e+18 1e+18 0 0 0 0 0 0 0 0 0 0 0 0 0 0 0 0 0 0 0 0 0 0 0 0 0 0 0 0 0 0 0 0 0 0 0 0 0 0 1e+18 1e+18 1e+18 1e+18 1e+18 1e+18 1e+18 1e+18 1e+18 1e+18 0 1e+18 0 0 1e+18 0 1e+18 1e+18 0 1e+18 0 0 1e+18 1e+18 0 1e+18 0 1e+18 0 0 1e+18 0 1e+18 0 1e+18 0 1e+18 1e+18 1e+18 0 1e+18 1e+18 0 1e+18 1e+18 0 0 0 0 0 1e+18 1e+18 0 0 1e+18 0 1e+18 0 1e+18 0 1e+18 0 1e+18 1e+18 1e+18 0 0 0 0 1e+18 1e+18 1e+18 1e+18 1e+18 0 1e+18 0 0 1e+18 0 1e+18 0 0 1e+18 1e+18 0 1e+18 1e+18 0 1e+18 0 1e+18 1e+18 1e+18 0 0 1e+18 0 0 1e+18 1e+18 0 1e+18 0 0 0 1e+18 0 0 1e+18 0 0 1e+18 1e+18 0 1e+18 1e+18 1e+18 0 1e+18 1e+18 0 1e+18 1e+18 0 0 1e+18 1e+18 1e+18 0 1e+18 0 1e+18 0 1e+18 1e+18 0 0 1e+18 0 0 0 1e+18 0 1e+18 1e+18 0 0 1e+18 0 1e+18 0 1e+18 0 1e+18 0 1e+18 1e+18 0 1e+18 1e+18 0 0 0 0 1e+18 0 1e+18 1e+18 0 0 1e+18 0 0 0 1e+18 0 1e+18 1e+18 1e+18 0 0 1e+18 1e+18 1e+18 1e+18 0 1e+18 0 0 0 1e+18 1e+18 1e+18 1e+18 1e+18 0 1e+18 1e+18 0 0 1e+18 1e+18 0 1e+18 1e+18 1e+18 1e+18 1e+18 0 0 1e+18 0 0 0 0 1e+18 1e+18 0 0 1e+18 1e+18 0 0 0 0 0 0 0 1e+18 1e+18 0 0 0 0 1e+18 1e+18 1e+18 0 1e+18 0 0 1e+18 1e+18 1e+18 0 1e+18 1e+18 0 0 1e+18 1e+18 0 1e+18 1e+18 0 0 0 0 1e+18 1e+18 0 1e+18 0 1e+18 0 1e+18 1e+18 1e+18 0 0 1e+18 1e+18 1e+18 1e+18 1e+18 1e+18 1e+18 0 0 1e+18 0 0 0 0 1e+18 1e+18 0 1e+18 0 0 0 1e+18 1e+18 0 1e+18 1e+18 0 0 0 1e+18 0 0 0 1e+18 1e+18 1e+18 1e+18 0 0 0 0 1e+18 0 0 0 0 0 0 1e+18 1e+18 1e+18 0 1e+18 1e+18 1e+18 0 1e+18 1e+18 0 1e+18 0 0 0 0 1e+18 1e+18 0 0 0 0 1e+18 0 0 1e+18 1e+18 0 1e+18 1e+18 1e+18 0 0 0 0 0 1e+18 1e+18 1e+18 1e+18 1e+18 0 1e+18 0 0 0 0 0 0 0 1e+18 0 0 1e+18 0 0 0 1e+18 1e+18 1e+18 1e+18 1e+18 1e+18 1e+18 1e+18 1e+18 1e+18 1e+18 0 1e+18 1e+18 0 1e+18 0 0 1e+18 0 1e+18 0 0 0 0 0 0 1e+18 0 0 0 1e+18 0 0 1e+18 0 0 0 1e+18 1e+18 1e+18 0 1e+18 0 1e+18 1e+18 0 0 0 1e+18 1e+18 0 0 0 0 1e+18
1 1 1 1 1 1 1 1 1 1 1 1 1 1 1 1 1 1 1 1 1 1 0 0 0 0 0 0 0 0 0 0 0 0 0 0 0 0 0 0 1 1 1 1 1 1 1 1 1 1 1 1 1 1 1 1 1 1 1 0 0 0 0 0 0 0 0 0 0 0 0 0 0 0 0 0 0 0 0 0 0 0 0 0 0 0 0 0 0 0 0 0 0 0 0 0 0 0 0 0 0 0 0 0 0 0 0 0 0 0 0 0 0 0 0 0 0 0 0 0 0 0 0 0 0 0 0 0 0 0 0 0 0 0 0 0 0 0 0 0 0 0 0 0 0 0 0 0 0 0 0 0 0 0 0 0 0 0 0 0 0 0 0 0 0 0 0 0 0 0 0 0 0 0 0 0 0 0 0 0 0 0 0 0 0 0 0 0 0 0 0 0 0 0 0 0 0 0 0 0 0 0 0 0 0 0 0 0 0 0 0 0 0 0 0 0 0 0 0 0 0 0 0 0 0 0 0 0 0 0 0 0 0 0 0 0 0 0 0 0 0 0 0 0 0 0 0 0 0 0 0 0 0 0 0 0 0 0 0 0 0 0 0 0 0 0 0 0 0 0 0 0 0 0 0 0 0 0 0 0 0 0 0 0 0 0 0 0 0 0 0 0 0 0 0 0 0 0 0 0 0 0 0 0 0 0 0 0 0 0 0 0 0 0 0 0 0 0 0 0 0 0 0 0 0 0 0 0 0 0 0 0 0 0 0 0 0 0 0 0 0 0 0 0 0 0 0 0 0 0 0 0 0 0 0 0 0 0 0 0 0 0 0 0 0 0 0 0 0 0 0 0 0 0 0 0 0 0 0 0 0 0 0 0 0 0 0 0 0 0 0 0 0 0 0 0 0 0 0 0 0 0 0 0 0 0 0 0 0 0 0 0 0 0 0 0 0 0 0 0 0 0 0 0 0 0 0 0 0 0 0 0 0 0 0 0 0 0 0 0 0 0 0 0 0 0 0 0 0 0 0 0 0 0 0 0 0 0 0 0 0 0 0 0 0 0 0 0 0 0 0 0 0 0 0 0 0 0 0 0 0 0 0 0 0 0 0 0 0 0 0 0 0 0 0 0 0 0 0 0 0
2.63158e-07 2.63158e-07 2.5e-07 2.5e-07 5.26316e-07 5.26316e-07 5.26316e-07 5.26316e-07 5.26316e-07 5.26316e-07 5.26316e-07 5.26316e-07 5.26316e-07 5.26316e-07 5.26316e-07 5.26316e-07 5.26316e-07 5.26316e-07 5.26316e-07 5.26316e-07 5.26316e-07 5.26316e-07 0 0 0 0 0 0 0 0 0 0 0 0 0 0 0 0 0 0 5e-07 5e-07 5e-07 5e-07 5e-07 5e-07 5e-07 5e-07 5e-07 5e-07 5e-07 5e-07 5e-07 5e-07 5e-07 5e-07 5e-07 5e-07 5e-07 0 0 0 0 0 0 0 0 0 0 0 0 0 0 0 0 0 0 0 0 0 0 0 0 0 0 0 0 0 0 0 0 0 0 0 0 0 0 0 0 0 0 0 0 0 0 0 0 0 0 0 0 0 0 0 0 0 0 0 0 0 0 0 0 0 0 0 0 0 0 0 0 0 0 0 0 0 0 0 0 0 0 0 0 0 0 0 0 0 0 0 0 0 0 0 0 0 0 0 0 0 0 0 0 0 0 0 0 0 0 0 0 0 0 0 0 0 0 0 0 0 0 0 0 0 0 0 0 0 0 0 0 0 0 0 0 0 0 0 0 0 0 0 0 0 0 0 0 0 0 0 0 0 0 0 0 0 0 0 0 0 0 0 0 0 0 0 0 0 0 0 0 0 0 0 0 0 0 0 0 0 0 0 0 0 0 0 0 0 0 0 0 0 0 0 0 0 0 0 0 0 0 0 0 0 0 0 0 0 0 0 0 0 0 0 0 0 0 0 0 0 0 0 0 0 0 0 0 0 0 0 0 0 0 0 0 0 0 0 0 0 0 0 0 0 0 0 0 0 0 0 0 0 0 0 0 0 0 0 0 0 0 0 0 0 0 0 0 0 0 0 0 0 0 0 0 0 0 0 0 0 0 0 0 0 0 0 0 0 0 0 0 0 0 0 0 0 0 0 0 0 0 0 0 0 0 0 0 0 0 0 0 0 0 0 0 0 0 0 0 0 0 0 0 0 0 0 0 0 0 0 0 0 0 0 0 0 0 0 0 0 0 0 0 0 0 0 0 0 0 0 0 0 0 0 0 0 0 0 0 0 0 0 0 0 0 0 0 0 0 0 0 0 0 0 0 0 0 0 0 0 0 0 0 0 0 0 0 0 0 0 0 0 0 0 0 0 0 0 0 0 0 0 0 0 0 0 0 0 0 0 0 0 0 0 0 0 0 0 0 0 0 0 0 0 0 0 0 0 0 0 0 0 0 0 0 0 0 0 0 0 0
0 0 1e+18 1e+18 0 0 0 0 0 0 0 0 0 0 0 0 0 0 0 0 0 0 0 0 0 0 0 0 0 0 0 1e+18 1e+18 1e+18 1e+18 1e+18 1e+18 1e+18 1e+18 1e+18 1e+18 1e+18 1e+18 1e+18 1e+18 1e+18 1e+18 1e+18 1e+18 1e+18 1e+18 1e+18 1e+18 1e+18 1e+18 1e+18 1e+18 1e+18 1e+18 1e+18 1e+18 1e+18 1e+18 1e+18 1e+18 1e+18 1e+18 1e+18 1e+18 0 0 0 0 0 0 0 0 0 0 1e+18 0 1e+18 1e+18 0 1e+18 0 0 1e+18 0 1e+18 1e+18 0 0 1e+18 0 1e+18 0 1e+18 1e+18 0 1e+18 0 1e+18 0 1e+18 0 0 0 1e+18 0 0 1e+18 0 0 1e+18 1e+18 1e+18 1e+18 1e+18 0 0 1e+18 1e+18 0 1e+18 0 1e+18 0 1e+18 0 1e+18 0 0 0 1e+18 1e+18 1e+18 1e+18 0 0 0 0 0 1e+18 0 1e+18 1e+18 0 1e+18 0 1e+18 1e+18 0 0 1e+18 0 0 1e+18 0 1e+18 0 0 0 1e+18 1e+18 0 1e+18 1e+18 0 0 1e+18 0 1e+18 1e+18 1e+18 0 1e+18 1e+18 0 1e+18 1e+18 0 0 1e+18 0 0 0 1e+18 0 0 1e+18 0 0 1e+18 1e+18 0 0 0 1e+18 0 1e+18 0 1e+18 0 0 1e+18 1e+18 0 1e+18 1e+18 1e+18 0 1e+18 0 0 1e+18 1e+18 0 1e+18 0 1e+18 0 1e+18 0 1e+18 0 0 1e+18 0 0 1e+18 1e+18 1e+18 1e+18 0 1e+18 0 0 1e+18 1e+18 0 1e+18 1e+18 1e+18 0 1e+18 0 0 0 1e+18 1e+18 0 0 0 0 1e+18 0 1e+18 1e+18 1e+18 0 0 0 0 0 1e+18 0 0 1e+18 1e+18 0 0 1e+18 0 0 0 0 0 1e+18 1e+18 0 1e+18 1e+18 1e+18 1e+18 0 0 1e+18 1e+18 0 0 1e+18 1e+18 1e+18 1e+18 1e+18 1e+18 1e+18 0 0 1e+18 1e+18 1e+18 1e+18 0 0 0 1e+18 0 1e+18 1e+18 0 0 0 1e+18 0 0 1e+18 1e+18 0 0 1e+18 0 0 1e+18 1e+18 1e+18 1e+18 0 0 1e+18 0 1e+18 0 1e+18 0 0 0 1e+18 1e+18 0 0 0 0 0 0 0 1e+18 1e+18 0 1e+18 1e+18 1e+18 1e+18 0 0 1e+18 0 1e+18 1e+18 1e+18 0 0 1e+18 0 0 1e+18 1e+18 1e+18 0 1e+18 1e+18 1e+18 0 0 0 0 1e+18 1e+18 1e+18 1e+18 0 1e+18 1e+18 1e+18 1e+18 1e+18 1e+18 0 0 0 1e+18 0 0 0 1e+18 0 0 1e+18 0 1e+18 1e+18 1e+18 1e+18 0 0 1e+18 1e+18 1e+18 1e+18 0 1e+18 1e+18 0 0 1e+18 0 0 0 1e+18 1e+18 1e+18 1e+18 1e+18 0 0 0 0 0 1e+18 0 1e+18 1e+18 1e+18 1e+18 1e+18 1e+18 1e+18 0 1e+18 1e+18 0 1e+18 1e+18 1e+18 0 0 0 0 0 0 0 0 0 0 0 1e+18 0 0 1e+18 0 1e+18 1e+18 0 1e+18 0 1e+18 1e+18 1e+18 1e+18 1e+18 1e+18 0 1e+18 1e+18 1e+18 0 1e+18 1e+18 0 1e+18 1e+18 1e+18 0 0 0 1e+18 0 1e+18 0 0 1e+18 1e+18 1e+18 0 0 1e+18 1e+18 1e+18 1e+18 0
-0 -0 -0 -0 -0 -0 -0 -0 -0 -0 -0 -0 -0 -0 -0 -0 -0 -0 -0 -0 -0 -0 -6.16388e-05 -0.000123497 -0.000186217 -0.000252933 -0.000338628 -0.000507586 -0.00122811 -0.0091393 -0.339677 -0.119355 -0.00482027 -0.00091104 -0.000447077 -0.000316058 -0.000241253 -0.000178632 -0.000118673 -5.92892e-05 -0 -0 -0 -0 -0 -0 -0 -0 -0 -0 -0 -0 -0 -0 -0 -0 -0 -0 -0 -5.71514e-05 -0.000114368 -0.000171982 -0.000231599 -0.000299459 -0.000403598 -0.000688774 -0.00219769 -0.0232686 -0.842055 -0.0592602 -0.00336698 -0.000793943 -0.00042388 -0.0003015 -0.000235999 -0.000175475 -0.000116514 -5.81739e-05 -0.355317 -0.00175724 -0.00034055 -0.000367167 -0.000289833 -0.000305734 -0.000309163 -0.000233021 -0.000234557 -0.00021777 -0.000346994 -0.000224747 -0.00016893 -0.000216734 -0.000159002 -0.000137725 -0.000140123 -0.000116742 -8.90638e-05 -5.94158e-05 -0.000104086 -9.65556e-05 -0.000297565 -0.535315 -0.00025187 -0.000262968 -0.0024853 -0.00125731 -0.000502458 -0.134923 -0.00186446 -0.000501522 -0.000930133 -9.4713e-05 -0.00071033 -0.000150741 -0.00106317 -0.00115105 -0.000155895 -0.000102129 -0.000138328 -0.000349528 -0.000122795 -0.000475508 -0.000167311 -0.000126993 -0.000145547 -0.000128719 -0.000347403 -0.00033155 -0.000266059 -0.000101284 -0.000222788 -0.000101238 -0.000218752 -0.000115866 -0.000109888 -0.00143774 -0.000398136 -5.6983e-05 -0.000158146 -5.8827e-05 -0.000228426 -0.000226194 -5.4876e-05 -5.20421e-05 -4.47672e-05 -4.1722e-05 -9.0373e-05 -0.366795 -0.0955224 -0.0237103 -0.00226127 -0.0454976 -0.010923 -0.00121652 -0.0305087 -0.000535479 -0.421682 -0.0301095 -0.252419 -0.000595924 -0.00310665 -0.00425696 -0.000328568 -0.000323213 -0.000204926 -0.00532323 -0.0222033 -0.000197588 -0.000161034 -0.000315011 -0.000439259 -0.00199259 -0.00023056 -0.0103597 -0.491112 -0.000497117 -0.00109477 -0.00020001 -0.000233301 -0.00134183 -0.000595468 -0.000546669 -0.000314854 -0.000524862 -0.000274211 -0.000630634 -0.000203351 -0.000441882 -0.00046409 -0.700522 -0.000464592 -0.00100048 -0.000812464 -0.000269579 -0.0172815 -0.000377825 -0.00313841 -0.000381611 -6.41737e-05 -0.000454408 -0.000342306 -0.000171836 -0.000129891 -0.000233859 -0.000450462 -0.000210518 -6.68953e-05 -0.000237809 -7.10985e-05 -5.60148e-05 -0.0130252 -5.50724e-05 -0.000267078 -0.000292508 -0.000359181 -0.000195611 -0.000488205 -0.000257722 -0.000178497 -5.19232e-05 -0.000282713 -0.00037598 -0.000118986 -0.000112948 -0.000355239 -0.000170164 -0.000305813 -0.000158433 -0.000166282 -6.57914e-05 -0.00044374 -0.00231907 -0.000302324 -5.36877e-05 -0.000173639 -7.92062e-05 -8.18941e-05 -0.000111437 -0.000183816 -5.67228e-05 -5.45409e-05 -0.000639149 -0.0108679 -0.000333898 -0.000602865 -9.43504e-05 -5.4442e-05 -0.000165542 -0.000202461 -4.92714e-05 -0.000247032 -0.000268121 -0.000367239 -0.000232405 -4.62198e-05 -5.80754e-05 -0.000270965 -0.000110703 -0.000256287 -0.000338759 -0.000259278 -0.000199626 -0.000205913 -0.000125241 -0.000217616 -0.000395112 -0.000173021 -0.000273194 -0.000687988 -0.000159119 -0.000274816 -5.45305e-05 -0.000130601 -7.57838e-05 -0.000482844 -0.000216848 -0.000119217 -0.000180711 -0.453111 -6.19604e-05 -6.72584e-05 -0.000117176 -0.000274222 -0.000172221 -0.000692236 -0.000202596 -0.000151269 -4.18055e-05 -3.49408e-05 -3.76523e-05 -0.000275157 -0.000111718 -0.0078983 -0.0551782 -0.473554 -0.440779 -0.00225704 -0.0395142 -0.572911 -0.00868659 -0.410543 -0.00800647 -0.000642335 -0.000473976 -0.063744 -0.0191068 -0.0580432 -5.60628e-05 -0.000415279 -0.000278772 -0.00106752 -0.00781228 -0.935984 -0.00128306 -0.00772365 -0.422743 -0.000514424 -0.164337 -0.00109432 -0.000275552 -0.00295567 -0.000519338 -0.00291261 -0.0162481 -0.0011608 -0.00391769 -0.00695848 -0.376848 -0.0098409 -0.000701085 -0.000343798 -0.211976 -0.000338548 -0.000302753 -0.000431414 -0.000741821 -0.000954713 -0.308741 -0.0002665 -0.200956 -0.000714017 -0.000786863 -0.00478663 -0.000317315 -0.000357314 -0.742029 -0.0226091 -0.0040094 -0.000591808 -0.388941 -0.505204 -0.00124164 -0.000356256 -0.0222583 -0.0139222 -0.000561526 -0.000106041 -0.0195289 -0.000257895 -0.000285015 -0.00039711 -0.0253238 -0.00215776 -0.487832 -0.00261193 -0.00308772 -0.00544735 -0.000516587 -0.446866 -4.24886e-05 -0.000868943 -0.0292619 -0.000420364 -0.00187563 -0.0014136 -0.000813052 -0.000356895 -0.015728 -0.000707845 -0.000239342 -0.00337167 -0.00038691 -0.308314 -0.326439 -0.000799719 -0.000204275 -0.00024994 -0.000480978 -0.000442448 -0.000424408 -0.00328701 -0.000243777 -0.000469276 -0.0180137 -0.0575732 -0.00294528 -0.00122596 -0.0249863 -0.000840228 -0.00252226 -0.00802466 -0.000313893 -0.000376755 -0.000141149 -0.000267568 -0.000289876 -0.042118 -3.97288e-05 -0.357339 -0.000286903 -0.000521442 -0.000309458 -0.000409217 -0.000202068 -0.000598342 -0.000806477 -0.000690477 -0.00152822 -9.23635e-05 -0.000109784 -0.000157565 -0.000333228 -0.000171724 -0.000139312 -3.77685e-05 -0.000209737 -0.022607 -0.000270183 -0.000260506 -0.149236 -0.000627831 -0.00248217 -0.000209512 -0.000105481 -0.00014821 -0.000185317 -0.000217991 -0.000725898 -0.000226563 -0.000203938 -9.96846e-05 -0.000937317 -0.000639085 -0.000326451 -0.000163393 -0.0758083 -0.0119125 -0.000384785 -0.000340288 -0.00118838 -5.88142e-05 -0.000114966 -0.000175341 -0.000345807 -0.00015238 -0.000746454 -0.000141726 -0.00202513 -0.000396036 -0.0054134 -0.236729 -6.17493e-05 -0.000100854 -0.00089158 -0.000274405 -0.230593 -4.80274e-05 -0.000217219 -0.702928 -0.000218317 -0.000349778 -0.000154548 -0.00247019 -0.000507582 -0.0562014 -0.00170388 -0.000281556 -0.000176427 -5.44687e-05 -0.00910827 -4.34723e-05 -0.000264149 -0.000522391 -0.000161224 -6.20084e-05 -0.00204538 -0.000381478 -0.00011013 -0.00037327 -9.23821e-05 -4.41791e-05 -0.000223885 -0.000202333 -0.000252016 -3.87709e-05 -4.775e-05 -0.0003401 -0.000225747 -0.000173547 -0.000194331 -3.71906e-05